LAMMPS (3 Mar 2020)
  using 1 OpenMP thread(s) per MPI task
shell rm -rf dump
WARNING: Shell command 'rm' failed with error 'No such file or directory' (src/input.cpp:1313)
WARNING: Shell command 'rm' failed with error 'No such file or directory' (src/input.cpp:1313)
shell mkdir dump


units real
atom_style full
read_data SPCE.data
  orthogonal box = (0 0 0) to (3.1 3.1 3.1)
  2 by 4 by 4 MPI processor grid
  reading atoms ...
  3 atoms
  scanning bonds ...
  2 = max bonds/atom
  scanning angles ...
  1 = max angles/atom
  reading bonds ...
  2 bonds
  reading angles ...
  1 angles
  2 = max # of 1-2 neighbors
  1 = max # of 1-3 neighbors
  1 = max # of 1-4 neighbors
  2 = max # of special neighbors
  special bonds CPU = 0.00694559 secs
  read_data CPU = 0.0276681 secs
include SPCE.forcefield
# Original model from Berendsen et al, J Phys Chem 91:6269 (1987)
# Charges and geometry are specified in the "data." file.

mass 1 1.00794 # H
mass 2 15.9994 # O

pair_style lj/cut/coul/long 10.0
pair_modify tail yes
kspace_style pppm 1.0e-5

pair_coeff 1 1 0.00000 0.000
pair_coeff 1 2 0.00000 0.000
pair_coeff 2 2 0.15535 3.166

bond_style harmonic
bond_coeff 1 0.0 1.0

angle_style harmonic
angle_coeff 1 0.0 109.47



replicate 10 10 10
  orthogonal box = (0 0 0) to (31 31 31)
  2 by 4 by 4 MPI processor grid
  3000 atoms
  2000 bonds
  1000 angles
  2 = max # of 1-2 neighbors
  1 = max # of 1-3 neighbors
  1 = max # of 1-4 neighbors
  2 = max # of special neighbors
  special bonds CPU = 0.002178 secs
  replicate CPU = 0.011086 secs

variable Nrun equal 1000
variable Nf equal ${Nrun}/10
variable Nf equal 1000/10
variable Ne equal 10
variable Nr equal ${Nf}/${Ne}
variable Nr equal 100/${Ne}
variable Nr equal 100/10
variable Ndump equal ${Nrun}/2
variable Ndump equal 1000/2
variable Nr_rdf equal 0.5*${Nrun}/${Ne}
variable Nr_rdf equal 0.5*1000/${Ne}
variable Nr_rdf equal 0.5*1000/10

variable watMoleMass equal 18.0153 # /(g/mol)
variable nAvog equal 6.0221415e23 # Avogadro's number
variable watMoleculeMass equal (${watMoleMass}/${nAvog}) # /(g/molecule)
variable watMoleculeMass equal (18.0153/${nAvog}) 
variable watMoleculeMass equal (18.0153/6.0221415e+23) 
variable A3_in_cm3 equal 1e-24 # Angstrom^3 in cm^3
variable nAtoms equal atoms
variable nMolecules equal v_nAtoms/3

variable Text equal 298.0
variable Pext equal 1.0

group hydrogen type 1
2000 atoms in group hydrogen
group oxygen type 2
1000 atoms in group oxygen

velocity all create ${Text} 1234
velocity all create 298 1234

neighbor 2.0 bin
neigh_modify every 1 delay 0 check yes

timestep 1.0

fix constrain all shake 1.0e-4 100 0 b 1 a 1
  0 = # of size 2 clusters
  0 = # of size 3 clusters
  0 = # of size 4 clusters
  1000 = # of frozen angles
  find clusters CPU = 0.00383194 secs
# fix removeMomentum all momentum 1 linear 1 1 1

group particle id 1 2 3
3 atoms in group particle

variable xcmx equal xcm(particle,x)
variable xcmy equal xcm(particle,y)
variable xcmz equal xcm(particle,z)
variable vcmx equal vcm(particle,x)
variable vcmy equal vcm(particle,y)
variable vcmz equal vcm(particle,z)


fix				 NVT all nvt temp  300 300 100
thermo           100
thermo_style     custom step temp etotal ke pe  press  pxx pyy pzz   lx ly lz
dump             1 all custom 1000  ./dump/nvt.lammpstrj id type x y z vx vy vz fx fy fz

fix              velpos all ave/time 10 1 10  v_vcmx v_vcmy v_vcmz  v_xcmx v_xcmy v_xcmz file ./dump/velocity_position_nvt.out

run				 1000000
PPPM initialization ...
  using 12-bit tables for long-range coulomb (src/kspace.cpp:332)
  G vector (1/distance) = 0.305114
  grid = 27 27 27
  stencil order = 5
  estimated absolute RMS force accuracy = 0.00306414
  estimated relative force accuracy = 9.22755e-06
  using double precision KISS FFT
  3d grid and FFT values/proc = 3920 756
Neighbor list info ...
  update every 1 steps, delay 0 steps, check yes
  max neighbors/atom: 2000, page size: 100000
  master list distance cutoff = 12
  ghost atom cutoff = 12
  binsize = 6, bins = 6 6 6
  1 neighbor lists, perpetual/occasional/extra = 1 0 0
  (1) pair lj/cut/coul/long, perpetual
      attributes: half, newton on
      pair build: half/bin/newton
      stencil: half/bin/3d/newton
      bin: standard
Per MPI rank memory allocation (min/avg/max) = 9.524 | 9.545 | 9.566 Mbytes
Step Temp TotEng KinEng PotEng Press Pxx Pyy Pzz Lx Ly Lz 
       0    447.07454    2215.3382    2663.9559   -448.61766    22294.726    24095.446     68782.26   -25993.529           31           31           31 
     100    859.91929   -907.91002    5123.9488   -6031.8589    6006.3944    5816.7927    6139.5709    6062.8195           31           31           31 
     200     662.7735   -3391.3985    3949.2282   -7340.6267    4530.7049    4134.9166    5306.6205    4150.5777           31           31           31 
     300    523.62725    -5187.551    3120.1059   -8307.6569    1667.8411    2747.7604    977.12142    1278.6416           31           31           31 
     400    435.30137   -6476.9622    2593.8039    -9070.766    291.85626    636.55278    191.38079    47.635226           31           31           31 
     500    379.20909   -7413.4537    2259.5702   -9673.0239    411.32122     497.2917    939.13475    -202.4628           31           31           31 
     600     340.1312   -8111.6275    2026.7191   -10138.347   -466.17924   -1479.0717   -454.49525    535.02922           31           31           31 
     700    313.25037   -8627.1969    1866.5459   -10493.743   -73.320336   -81.496566    32.652642   -171.11708           31           31           31 
     800    300.07953   -8983.2603    1788.0657   -10771.326   -1460.0184    -1316.804   -497.03375   -2566.2175           31           31           31 
     900    295.65566   -9196.4133    1761.7054   -10958.119   -965.35257   -727.18702   -1224.4396   -944.43111           31           31           31 
    1000    284.17713   -9285.6239     1693.309   -10978.933    239.12263    379.34456    370.95507   -32.931743           31           31           31 
    1100    294.17239   -9270.7766    1752.8672   -11023.644    552.28901    552.90114   -430.38394    1534.3498           31           31           31 
    1200    306.99002   -9218.5416    1829.2428   -11047.784    377.26763   -210.01515    348.47767    993.34037           31           31           31 
    1300    300.93682   -9236.2539     1793.174   -11029.428    333.87094   -489.68799    550.66965    940.63115           31           31           31 
    1400    300.10375    -9272.081      1788.21   -11060.291    475.66137    909.35678    353.09652    164.53082           31           31           31 
    1500    299.86662   -9296.0753     1786.797   -11082.872    505.93088    370.75347    541.41354    605.62564           31           31           31 
    1600    295.79095   -9278.2101    1762.5116   -11040.722    287.89488    246.37483    421.83331    195.47649           31           31           31 
    1700    305.74853   -9222.0865    1821.8452   -11043.932    129.24707    217.69315    317.29111   -147.24306           31           31           31 
    1800    313.41379   -9184.1464    1867.5197   -11051.666   -24.078594    465.38733   -425.61677   -112.00634           31           31           31 
    1900    311.89153   -9260.1352    1858.4491   -11118.584    255.91096    389.29596    134.82288    243.61403           31           31           31 
    2000    292.15133   -9403.1574    1740.8244   -11143.982    101.43897    972.22965   -403.05093   -264.86181           31           31           31 
    2100    292.43142   -9500.8945    1742.4934   -11243.388    238.75535    683.70428   -371.53083    404.09259           31           31           31 
    2200    288.28165   -9488.1486    1717.7664   -11205.915     184.4494   -480.52899    522.05194    511.82526           31           31           31 
    2300    294.53472   -9362.3454    1755.0261   -11117.372    352.42883    914.10249   -756.10378    899.28778           31           31           31 
    2400    309.16321   -9219.8054     1842.192   -11061.997    895.20415    680.59262     1073.518    931.50184           31           31           31 
    2500      309.432   -9187.2066    1843.7937       -11031     622.6002    1375.9741    57.336733    434.48974           31           31           31 
    2600     301.6877   -9301.4289    1797.6482   -11099.077    263.68171    923.13035   -49.521374   -82.563859           31           31           31 
    2700    286.67143   -9426.1982    1708.1716    -11134.37    234.04049     388.0265    17.902561    296.19243           31           31           31 
    2800    287.42141   -9469.6351    1712.6405   -11182.276    245.12835   -31.163249    499.06935    267.47895           31           31           31 
    2900    298.94917   -9425.1761    1781.3303   -11206.506     -234.372    454.30337   -1099.1927   -58.226637           31           31           31 
    3000    304.27987   -9333.7848     1813.094   -11146.879    95.669739    778.26936    41.387848   -532.64799           31           31           31 
    3100    302.90908   -9264.8185    1804.9259   -11069.744   -365.19511   -42.919333   -840.42114   -212.24486           31           31           31 
    3200    316.53362   -9256.7181    1886.1097   -11142.828   0.43658517   -445.52525    44.235514    402.59949           31           31           31 
    3300    294.31025   -9324.0238    1753.6886   -11077.712    25.668324   -128.11578   -220.25007    425.37082           31           31           31 
    3400    289.81626   -9397.6259    1726.9105   -11124.536    340.21749     642.6641    487.17975   -109.19139           31           31           31 
    3500    299.95695   -9405.4332    1787.3353   -11192.768   -70.483279    471.22856   -261.75354   -420.92485           31           31           31 
    3600    306.15315   -9376.9511    1824.2562   -11201.207    813.87463     357.0366    524.68005    1559.9072           31           31           31 
    3700    298.57489   -9383.3848    1779.1001   -11162.485    997.15094    1452.2592    913.61587    625.57774           31           31           31 
    3800    298.89405   -9389.8153    1781.0018   -11170.817   -31.897666   -279.36498   -602.62208    786.29407           31           31           31 
    3900    299.74376   -9374.1009     1786.065   -11160.166    114.35281   -176.81159   -400.28556    920.15558           31           31           31 
    4000    304.52889   -9376.0346    1814.5778   -11190.612    381.35274   -332.27396    477.02197     999.3102           31           31           31 
    4100    300.74526   -9366.8805    1792.0325   -11158.913    230.30013    460.20095   -18.876372    249.57582           31           31           31 
    4200    301.72708   -9343.2547    1797.8828   -11141.138    180.12863    388.99055    613.81178   -462.41643           31           31           31 
    4300    298.23464   -9331.1522    1777.0727   -11108.225    479.28068    820.59783   -289.60071    906.84491           31           31           31 
    4400    299.51207   -9357.6173    1784.6844   -11142.302    775.36717    591.57479    162.20246    1572.3243           31           31           31 
    4500    301.96941   -9368.4217    1799.3268   -11167.748    -663.1185   -260.71456   -865.45882   -863.18213           31           31           31 
    4600    300.95874   -9343.1698    1793.3046   -11136.474    52.438087   -122.13161    367.08896   -87.643084           31           31           31 
    4700    297.52991   -9296.1311    1772.8734   -11069.005    106.56526    368.35344   -225.18951    176.53185           31           31           31 
    4800    311.96678   -9260.5057    1858.8975   -11119.403   -109.14115    -433.0852    300.09417   -194.43243           31           31           31 
    4900    309.20263   -9265.2069    1842.4269   -11107.634    295.67219    595.55085   -78.022202    369.48792           31           31           31 
    5000    303.86416    -9340.212    1810.6169   -11150.829    92.737049    1049.8219   -998.57977    226.96903           31           31           31 
    5100    294.14655   -9426.0308    1752.7132   -11178.744    153.63345    503.36142   -210.34404    167.88298           31           31           31 
    5200    294.46601   -9437.8312    1754.6168   -11192.448    584.72544    694.74734    1217.0039   -157.57488           31           31           31 
    5300    294.58812   -9391.0633    1755.3444   -11146.408    312.98749    311.11213    552.79522    75.055119           31           31           31 
    5400    302.17687   -9321.5096     1800.563   -11122.073   -114.80795   -39.992585   -421.11968    116.68841           31           31           31 
    5500    313.81356   -9262.8772    1869.9018   -11132.779    158.34747   -84.246103    1245.3006    -686.0121           31           31           31 
    5600    298.29197   -9273.9448    1777.4143   -11051.359    161.22263    436.66737    426.96335   -379.96284           31           31           31 
    5700    303.64559   -9300.4337    1809.3145   -11109.748    293.80362     789.5291    520.97053   -429.08876           31           31           31 
    5800    305.22219   -9336.0697     1818.709   -11154.779   -340.27466   -162.13028    -361.4861   -497.20761           31           31           31 
    5900    300.62394   -9370.5179    1791.3096   -11161.828    216.91837    76.434974    545.58337    28.736771           31           31           31 
    6000    302.97665   -9378.2612    1805.3285    -11183.59   -44.975994    83.794845    86.707808   -305.43064           31           31           31 
    6100    294.46882    -9364.935    1754.6335   -11119.569    86.455709   -265.57466   -60.213367    585.15515           31           31           31 
    6200    302.64274   -9330.0655    1803.3389   -11133.404    432.07176    825.99916    739.84802    -269.6319           31           31           31 
    6300    301.74057   -9317.9247    1797.9632   -11115.888    622.19815    837.19811    998.07563    31.320728           31           31           31 
    6400    300.93949   -9332.3369    1793.1898   -11125.527   -12.528112    646.08228   -899.74676    216.08014           31           31           31 
    6500     300.0197   -9330.1754    1787.7092   -11117.885    450.54575    220.51725    1237.4641   -106.34414           31           31           31 
    6600    299.01708    -9294.731    1781.7349   -11076.466   -298.99056   -420.95676   -540.07701    64.062099           31           31           31 
    6700     307.4901   -9270.8477    1832.2226    -11103.07     421.5987      516.956    579.04717    168.79294           31           31           31 
    6800    294.94994   -9325.0072    1757.5003   -11082.508   -301.23231     -2.25507   -652.64069   -248.80118           31           31           31 
    6900    292.43722   -9365.9044    1742.5279   -11108.432   -10.497391   -788.92153    598.72109    158.70827           31           31           31 
    7000    300.02211    -9381.216    1787.7235    -11168.94    407.13268   -219.27753    491.04954    949.62604           31           31           31 
    7100    298.56163   -9392.6931    1779.0211   -11171.714    68.775623     1043.385   -540.02373    -297.0344           31           31           31 
    7200    302.37917   -9405.5566    1801.7684   -11207.325     165.3671    72.829794    179.56627    243.70524           31           31           31 
    7300    302.68842     -9389.23    1803.6111   -11192.841     236.4479   -67.145179   -117.38061    893.86948           31           31           31 
    7400    300.38592   -9357.0554    1789.8913   -11146.947    160.16995    -78.04656    90.238136    468.31826           31           31           31 
    7500    299.76323   -9342.8687     1786.181    -11129.05    261.77317    62.966134    410.50291    311.85048           31           31           31 
    7600    295.18896   -9362.4381    1758.9245   -11121.363    161.04759    136.35988    413.25819   -66.475289           31           31           31 
    7700    292.99615    -9360.384    1745.8584   -11106.242   -251.43035   -473.21075    204.52524   -485.60556           31           31           31 
    7800    299.79945   -9312.4072    1786.3968   -11098.804     36.70407    365.83584     227.5708   -483.29443           31           31           31 
    7900    314.17493   -9287.7644    1872.0551   -11159.819    75.365086    85.259357   -685.56599     826.4019           31           31           31 
    8000    303.85759   -9337.0807    1810.5778   -11147.658   -80.021794    152.35851    85.520951   -477.94485           31           31           31 
    8100    290.83698   -9377.4926    1732.9927   -11110.485    90.868142   -65.300099    44.776654    293.12787           31           31           31 
    8200    291.67307    -9353.099    1737.9746   -11091.074     396.9404   -32.651171    751.08435    472.38802           31           31           31 
    8300    305.08283   -9322.6125    1817.8785   -11140.491   -23.047662    180.66336   -229.14357   -20.662774           31           31           31 
    8400    298.84316   -9350.7321    1780.6986   -11131.431    -110.1098   -471.97622   -92.805295    234.45211           31           31           31 
    8500    306.40014   -9367.0771    1825.7279   -11192.805   -770.40324   -446.98704   -1367.1819   -497.04074           31           31           31 
    8600    302.93607   -9366.0154    1805.0868   -11171.102   -33.147853   -851.80343    667.42321    84.936659           31           31           31 
    8700     303.2062   -9371.0286    1806.6964   -11177.725   -206.73742   -344.17427   -161.79802   -114.23998           31           31           31 
    8800    301.13842   -9399.9548    1794.3752    -11194.33    401.38822    312.93061    20.589096    870.64494           31           31           31 
    8900    290.37835   -9416.0664    1730.2599   -11146.326    250.67968   -332.50143     296.1985    788.34198           31           31           31 
    9000    303.13503   -9384.8603    1806.2723   -11191.133   -54.707168   -574.40812   -24.401169    434.68778           31           31           31 
    9100    295.30959   -9356.3009    1759.6433   -11115.944    3.8835333   -496.09841   -378.56436    886.31337           31           31           31 
    9200    302.17283    -9321.365    1800.5389   -11121.904    131.58936   -308.58905    63.324257    640.03288           31           31           31 
    9300    298.92679   -9298.5567    1781.1969   -11079.754    38.930643    -140.5797     399.9923   -142.62067           31           31           31 
    9400    297.98058   -9289.5098    1775.5588   -11065.069   -33.216522   -620.58335    34.106298    486.82748           31           31           31 
    9500    298.88429   -9271.6203    1780.9437   -11052.564   -352.80109    1.8210682   -296.41073   -763.81361           31           31           31 
    9600    300.62382   -9254.8747    1791.3089   -11046.184    282.99898    183.06915    222.71844    443.20935           31           31           31 
    9700    302.89428   -9285.4602    1804.8378   -11090.298    520.54581    569.17035    281.25303    711.21406           31           31           31 
    9800    297.06682   -9336.0618    1770.1141   -11106.176    157.87141   -159.54862    936.81873   -303.65589           31           31           31 
    9900     296.3557   -9335.7391    1765.8767   -11101.616    330.98198    602.27124   -58.864722    449.53942           31           31           31 
   10000    302.52903   -9317.7989    1802.6614    -11120.46    375.96907    745.02908    -119.5612    502.43932           31           31           31 
   10100    299.00992   -9322.0153    1781.6923   -11103.708    497.53581     477.0136    146.63711    868.95673           31           31           31 
   10200    305.86191   -9356.6789    1822.5208     -11179.2    23.139083   -480.42485    735.32592   -185.48383           31           31           31 
   10300    294.07507   -9415.2432    1752.2873   -11167.531    576.45511    657.62386     1138.087   -66.345501           31           31           31 
   10400    299.71064   -9429.7513    1785.8676   -11215.619    163.07764     54.57292    283.51214    151.14786           31           31           31 
   10500    300.22559   -9379.9706     1788.936   -11168.907    143.86666   -64.146824     357.2974     138.4494           31           31           31 
   10600    303.91823   -9318.7791    1810.9391   -11129.718   -311.59927   -704.67596   -273.41028    43.288417           31           31           31 
   10700    305.56857    -9299.463    1820.7729   -11120.236   -185.68748   -412.24734   -368.89805    224.08296           31           31           31 
   10800    303.14403   -9353.8798    1806.3259   -11160.206    505.31943   -103.57276    776.71566     842.8154           31           31           31 
   10900    298.45395   -9438.6762    1778.3794   -11217.056   -612.13157   -825.40575   -226.15864   -784.83031           31           31           31 
   11000    297.18022   -9429.7079    1770.7898   -11200.498   -47.159374   -173.80338    256.16327   -223.83801           31           31           31 
   11100    303.43727   -9351.3481    1808.0732   -11159.421   -272.06428   -880.27227   -88.438966    152.51839           31           31           31 
   11200    306.54513   -9298.7345    1826.5918   -11125.326   -244.86766    130.26495     -1070.23    205.36213           31           31           31 
   11300     302.2039   -9288.4402     1800.724   -11089.164   -537.19445   -822.58136    -671.9977   -117.00428           31           31           31 
   11400    300.96674   -9295.3941    1793.3522   -11088.746   -944.74265   -621.48601   -555.68795    -1657.054           31           31           31 
   11500    296.35654   -9321.9218    1765.8817   -11087.804    -71.25085   -272.75224   -412.25758    471.25727           31           31           31 
   11600    291.59109    -9327.419    1737.4861   -11064.905   -53.912306   -13.152652   -528.07773    379.49346           31           31           31 
   11700    297.51492   -9282.9718    1772.7841   -11055.756   -406.88053   -203.20473   -494.81753   -522.61933           31           31           31 
   11800     301.7398   -9247.0957    1797.9587   -11045.054     694.1387    909.29825    954.76814     218.3497           31           31           31 
   11900    299.62811   -9281.2537    1785.3758    -11066.63    188.15456    215.95696     472.6757     -124.169           31           31           31 
   12000    304.26084    -9353.091    1812.9806   -11166.072    475.95342    395.74991    673.89092    358.21943           31           31           31 
   12100    289.24752   -9396.5965    1723.5216   -11120.118    35.031791      54.3196    253.45103   -202.67525           31           31           31 
   12200    303.40352   -9370.5846    1807.8721   -11178.457    497.91594    1307.7179    294.51536    -108.4854           31           31           31 
   12300    311.80174   -9345.7465    1857.9141   -11203.661   -76.380711    343.72009   -512.05733   -60.804898           31           31           31 
   12400     298.2131   -9370.9144    1776.9443   -11147.859    58.854494    267.41934    -44.20347   -46.652387           31           31           31 
   12500    296.71638   -9401.7139    1768.0259    -11169.74    47.211995   -345.31293    276.17439    210.77453           31           31           31 
   12600    298.60332   -9401.5906    1779.2695    -11180.86   -617.10763   -974.52536   -608.99433   -267.80318           31           31           31 
   12700    301.92092   -9355.0693    1799.0379   -11154.107   -37.088111   -23.014858   -383.05226    294.80279           31           31           31 
   12800    305.82123   -9312.8338    1822.2784   -11135.112    75.863501    553.98531    133.71747   -460.11228           31           31           31 
   12900    303.30051   -9306.5263    1807.2583   -11113.785   -83.849869   -769.00929    935.60902   -418.14933           31           31           31 
   13000    306.36702   -9300.0832    1825.5305   -11125.614    92.352168   -660.35434    266.37282    671.03803           31           31           31 
   13100    303.90851   -9337.8903    1810.8812   -11148.772    346.63705    415.51678    759.25469   -134.86031           31           31           31 
   13200    304.62764   -9395.1529    1815.1662   -11210.319    412.14796    717.43374     330.7659    188.24423           31           31           31 
   13300    301.42434    -9419.873    1796.0789   -11215.952    464.75219    475.64622    721.72827    196.88208           31           31           31 
   13400    292.61145   -9410.5649    1743.5661   -11154.131    686.38675    698.53624    579.47839    781.14562           31           31           31 
   13500    304.51476   -9334.5237    1814.4936   -11149.017    398.48013    798.73121    246.71537     149.9938           31           31           31 
   13600    310.39952   -9301.4574    1849.5588   -11151.016    715.53099    1085.3356    333.03876    728.21859           31           31           31 
   13700    300.42125   -9342.3812    1790.1019   -11132.483     474.3839    98.930877   -1.1101999     1325.331           31           31           31 
   13800    299.82918   -9359.8606    1786.5739   -11146.435   -6.9888029   -217.27105     177.3522     18.95244           31           31           31 
   13900    305.00848   -9339.8416    1817.4355   -11157.277   -131.75169   -655.36493   -260.66189    520.77175           31           31           31 
   14000    314.03738   -9304.3405    1871.2355   -11175.576   -152.09271   -325.52458   -439.90955    309.15599           31           31           31 
   14100    292.00358   -9346.1089     1739.944   -11086.053   -120.31504    149.92127     152.5035   -663.36991           31           31           31 
   14200    297.94865   -9376.2553    1775.3685   -11151.624    329.60317   -555.23317    1101.3216    442.72111           31           31           31 
   14300    297.35466    -9389.668    1771.8291   -11161.497    684.69692   -272.10582    963.01694    1363.1796           31           31           31 
   14400    310.02915   -9350.1947    1847.3519   -11197.547    235.92812     190.4813    512.16492     5.138131           31           31           31 
   14500    302.93005   -9290.4093    1805.0509    -11095.46    516.43293    946.48872   -91.054968    693.86502           31           31           31 
   14600    311.67188   -9275.1111    1857.1403   -11132.251   -245.00775   -976.87306    259.52087   -17.671064           31           31           31 
   14700       296.27   -9356.1159     1765.366   -11121.482    -204.5168   -389.89925    100.90133   -324.55249           31           31           31 
   14800    294.12283   -9383.0536    1752.5718   -11135.625    126.68783    107.07855    280.74267   -7.7577141           31           31           31 
   14900    292.96557    -9359.562    1745.6762   -11105.238    1586.0943    1437.7157    721.25447    2599.3128           31           31           31 
   15000    307.43353   -9311.9038    1831.8855   -11143.789    556.55483    974.59027    255.62982    439.44441           31           31           31 
   15100    300.35788   -9298.7638    1789.7243   -11088.488   -31.740108   -63.640179   -983.34808    951.76793           31           31           31 
   15200    307.39525   -9327.2968    1831.6574   -11158.954    761.94877    1481.7578   -657.51314    1461.6017           31           31           31 
   15300    294.80932   -9405.6868    1756.6624   -11162.349    572.01998     388.9246    502.42374    824.71161           31           31           31 
   15400     304.5053   -9404.0297    1814.4372   -11218.467    100.13828    334.74651   -142.37777    108.04609           31           31           31 
   15500    299.75289   -9396.5377    1786.1193   -11182.657    910.02247    387.43522    1095.0888    1247.5434           31           31           31 
   15600    304.31163   -9415.1174    1813.2832   -11228.401      249.744     -364.912   -50.392561    1164.5366           31           31           31 
   15700    291.46749    -9468.851    1736.7496   -11205.601    373.66888     132.5374    415.94295    572.52628           31           31           31 
   15800    296.73043   -9482.0853    1768.1096   -11250.195     189.1267   -152.23508    582.08847    137.52671           31           31           31 
   15900    299.93787   -9412.1734    1787.2216   -11199.395    290.07121    56.774424   -129.36199    942.80121           31           31           31 
   16000    301.95698   -9363.0357    1799.2527   -11162.288     241.5619    54.831066    118.39784    551.45678           31           31           31 
   16100    294.98444   -9358.0261    1757.7058   -11115.732   -46.165437   -271.14321    10.143949    122.50295           31           31           31 
   16200    306.45029    -9320.155    1826.0267   -11146.182      305.911    405.94996    567.79559   -56.012557           31           31           31 
   16300    300.43781   -9315.7722    1790.2005   -11105.973    121.55342    399.11693    219.47685   -253.93353           31           31           31 
   16400    293.95502    -9372.219    1751.5719   -11123.791   -358.84068   -269.70486   -277.31179    -529.5054           31           31           31 
   16500    294.89658   -9416.9467    1757.1824   -11174.129    62.455451    206.39862   -565.79377     546.7615           31           31           31 
   16600    302.50744   -9397.5164    1802.5327   -11200.049    27.760826    33.957386   -37.429488     86.75458           31           31           31 
   16700    301.21172   -9348.3444     1794.812   -11143.156    -374.1478   -176.11427   -153.48832   -792.84082           31           31           31 
   16800    305.15033   -9295.8681    1818.2808   -11114.149    298.97545    184.31269    107.83458    604.77908           31           31           31 
   16900    304.24466   -9325.1996    1812.8842   -11138.084    882.37507    455.16819    747.93778    1444.0192           31           31           31 
   17000    290.61358   -9417.5683    1731.6615    -11149.23    27.182054    343.23107    114.47072   -376.15562           31           31           31 
   17100    297.35237   -9397.9657    1771.8155   -11169.781   -493.47184   -562.71878   -64.376986   -853.31977           31           31           31 
   17200    295.37899   -9348.5204    1760.0569   -11108.577   -312.90257   -163.89339   -976.07276    201.25843           31           31           31 
   17300    301.78642   -9294.3912    1798.2364   -11092.628    106.38876    261.66663   -288.56419    346.06383           31           31           31 
   17400    303.15162    -9277.133    1806.3711   -11083.504    490.88474    300.88524    657.38805    514.38093           31           31           31 
   17500    299.73918    -9305.335    1786.0377   -11091.373    121.81844   -40.881548     507.7599   -101.42303           31           31           31 
   17600     298.5604   -9305.7266    1779.0137    -11084.74   -722.74198   -142.65528   -1579.5243   -446.04635           31           31           31 
   17700    298.68489   -9323.8856    1779.7555   -11103.641   -153.63201   -372.11755   -648.38214    559.60366           31           31           31 
   17800    297.70348   -9353.0255    1773.9077   -11126.933   -601.40104    31.577666   -1248.4036   -587.37722           31           31           31 
   17900    295.27297   -9364.7105    1759.4251   -11124.136    251.02769    307.92956    143.51941    301.63411           31           31           31 
   18000    296.79001   -9330.7813    1768.4646   -11099.246    962.97558    422.69942    1452.6995    1013.5278           31           31           31 
   18100     299.6758   -9298.1343      1785.66   -11083.794   -362.51299   -135.69163   -279.57975   -672.26759           31           31           31 
   18200    305.63879   -9289.4668    1821.1913   -11110.658   -251.09744     770.2302   -451.76167   -1071.7608           31           31           31 
   18300    304.82023   -9286.0592    1816.3138   -11102.373   -5.3448232    637.85906   -401.64835   -252.24518           31           31           31 
   18400      289.207   -9324.5005    1723.2802   -11047.781    205.43286    1044.7983    -126.9857   -301.51404           31           31           31 
   18500    296.27348   -9344.4385    1765.3868   -11109.825   -234.14085     3.540783   -943.51791    237.55459           31           31           31 
   18600    303.54347   -9281.5778     1808.706   -11090.284    191.01949   -78.905219    535.74589    116.21781           31           31           31 
   18700    306.88482   -9246.2363     1828.616   -11074.852   -31.650799   -500.99097    100.50367    305.53491           31           31           31 
   18800    305.92428   -9293.3665    1822.8924   -11116.259    397.56106   -50.181156    26.868102    1215.9962           31           31           31 
   18900    298.10087   -9326.8063    1776.2755   -11103.082     246.8782   -417.99706    642.59521    516.03644           31           31           31 
   19000    294.86067   -9336.1796    1756.9683   -11093.148      374.747    594.30224   -15.804745    545.74352           31           31           31 
   19100    296.43802   -9318.1847    1766.3672   -11084.552    595.88095     669.2136    835.77393    282.65532           31           31           31 
   19200    305.03341   -9266.2291    1817.5841   -11083.813    6.2285003   -78.424067    531.93937   -434.82981           31           31           31 
   19300    311.53706   -9186.2534     1856.337    -11042.59    543.09443    232.91642    789.29515    607.07173           31           31           31 
   19400    307.14645   -9214.8576    1830.1749   -11045.033    123.99955   -401.97376     826.8401   -52.867695           31           31           31 
   19500    306.40966   -9266.4435    1825.7846   -11092.228   -181.74726   -777.14542    1006.6033   -774.69968           31           31           31 
   19600     302.4962   -9295.1094    1802.4658   -11097.575   -51.061878    564.13189   -358.24444   -359.07308           31           31           31 
   19700    300.21351   -9323.9033     1788.864   -11112.767    93.551462    345.58737    242.11562    -307.0486           31           31           31 
   19800    299.36141   -9362.5783    1783.7867   -11146.365    125.39077   -108.78597    932.67482   -447.71652           31           31           31 
   19900    292.45593   -9436.6762    1742.6394   -11179.316   -51.702442   -14.706304    163.80957   -304.21059           31           31           31 
   20000    299.42639   -9452.8563    1784.1739    -11237.03   -129.44954   -1182.8236    472.40872     322.0663           31           31           31 
   20100    295.71424    -9421.543    1762.0545   -11183.597    -803.0084   -386.83733   -640.64913   -1381.5387           31           31           31 
   20200    301.89154   -9377.2994    1798.8628   -11176.162    155.77028   -51.697829    380.82274    138.18594           31           31           31 
   20300    297.36107   -9348.0572    1771.8673   -11119.925   -19.809884    148.31398    47.213181   -254.95682           31           31           31 
   20400    305.81233   -9321.8821    1822.2254   -11144.107    283.92064    48.130361    721.17271    82.458839           31           31           31 
   20500    304.12701   -9362.9482    1812.1832   -11175.131     98.76912   -335.20092    508.29284    123.21545           31           31           31 
   20600    294.39997   -9450.7385    1754.2233   -11204.962    415.35526     142.4382    479.09447     624.5331           31           31           31 
   20700    287.80324   -9439.7282    1714.9157   -11154.644    99.710434   -503.57744    220.91396    581.79478           31           31           31 
   20800    300.30354   -9368.4418    1789.4005   -11157.842   -360.45546   -563.65044   -659.96583    142.24989           31           31           31 
   20900    304.06976   -9335.6768     1811.842   -11147.519    541.18141    855.51925     1230.932   -462.90702           31           31           31 
   21000    297.16897   -9353.8099    1770.7227   -11124.533    171.09887    337.24804   -36.323233     212.3718           31           31           31 
   21100    301.08039    -9337.344    1794.0295   -11131.373    79.266621    220.01452   -256.49645    274.28179           31           31           31 
   21200     301.1627   -9261.7862    1794.5199   -11056.306   -8.0286441    32.107894   -28.395705   -27.798121           31           31           31 
   21300     306.0232    -9254.766    1823.4819   -11078.248    638.72273    842.06922     199.1694    874.92956           31           31           31 
   21400    299.18663   -9309.7625    1782.7452   -11092.508   -153.82357    502.82054   -776.63809   -187.65315           31           31           31 
   21500    303.17017   -9316.1757    1806.4817   -11122.657    -482.7532    107.28073   -1011.0029   -544.53745           31           31           31 
   21600    301.90197    -9323.492    1798.9249   -11122.417   -331.78235   -351.01696     -454.953   -189.37709           31           31           31 
   21700    297.38386   -9362.2547    1772.0032   -11134.258   -133.82618    209.79618   -968.64892     357.3742           31           31           31 
   21800    293.38465   -9356.9587    1748.1733   -11105.132    270.26217     -85.0549    328.56815    567.27326           31           31           31 
   21900    296.53858   -9268.1243    1766.9664   -11035.091    953.33997    1682.8413     29.06168    1148.1169           31           31           31 
   22000    309.52283   -9255.6077    1844.3349   -11099.943   -100.55004    0.5229696   -92.522004   -209.65108           31           31           31 
   22100    309.95238    -9307.436    1846.8944    -11154.33    110.64948    75.622291    19.505642     236.8205           31           31           31 
   22200    297.74556   -9346.7445    1774.1584   -11120.903   -65.768912   -420.96939   -74.165419    297.82808           31           31           31 
   22300    300.31017   -9341.8713      1789.44   -11131.311   -886.74035   -343.29146   -1677.4252   -639.50434           31           31           31 
   22400    305.12101   -9295.6567     1818.106   -11113.763   -464.49036   -762.10507    216.12311   -847.48911           31           31           31 
   22500    299.00437   -9262.8936    1781.6592   -11044.553   -215.15837    -264.4048   -204.78334   -176.28696           31           31           31 
   22600    295.08997   -9268.9741    1758.3347   -11027.309   -78.271493    433.02324   -1272.2872    604.44944           31           31           31 
   22700    298.55352   -9275.4355    1778.9728   -11054.408   -135.53057     492.8387   -563.89134   -335.53908           31           31           31 
   22800    299.07962   -9288.0062    1782.1076   -11070.114    87.712961    132.55641    289.97674   -159.39426           31           31           31 
   22900    303.79697   -9344.4153    1810.2166   -11154.632   -193.13464    17.960424   -186.06328   -411.30107           31           31           31 
   23000    297.80566    -9393.084    1774.5165   -11167.601   -444.93587   -564.38391   -500.10461    -270.3191           31           31           31 
   23100    299.20146   -9374.4922    1782.8336   -11157.326   -214.81135   -877.57936    562.28169   -329.13639           31           31           31 
   23200    294.90547   -9323.9989    1757.2353   -11081.234   -226.29013   -692.25206    28.772657      -15.391           31           31           31 
   23300    301.59763   -9297.3944    1797.1115   -11094.506    190.92602    323.45758    670.79105   -421.47057           31           31           31 
   23400    297.94106   -9312.6302    1775.3233   -11087.954    476.86227    1249.5837    443.45538   -262.45222           31           31           31 
   23500    295.29651     -9347.62    1759.5654   -11107.185   -197.31862    1068.7804   -959.60911   -701.12718           31           31           31 
   23600    305.06281   -9367.5462    1817.7593   -11185.305   -720.72168   -1252.6474   -360.32413   -549.19354           31           31           31 
   23700    299.00348   -9429.8171    1781.6539   -11211.471   -915.35949   -1385.9495   -743.94764   -616.18131           31           31           31 
   23800    293.20588   -9500.5824    1747.1081    -11247.69   -457.19369    337.73227   -1082.4518   -626.86151           31           31           31 
   23900    292.77722   -9472.3797    1744.5538   -11216.934   -582.30788    -662.0812   -834.06674   -250.77568           31           31           31 
   24000    302.16037   -9408.0839    1800.4646   -11208.549    123.92511   -25.675738   -21.856136     419.3072           31           31           31 
   24100    305.98416   -9401.6422    1823.2492   -11224.891    251.96267    324.56703    449.37621   -18.055217           31           31           31 
   24200    298.26962   -9431.5197    1777.2811   -11208.801    170.17313   -127.38409    257.23492    380.66858           31           31           31 
   24300    294.97348   -9455.1692    1757.6406    -11212.81   -283.14943   -1371.8055     1224.697   -702.33978           31           31           31 
   24400    301.35062   -9410.9126    1795.6397   -11206.552    254.93778    417.25833   -653.39946    1000.9545           31           31           31 
   24500    303.31392   -9349.9332    1807.3382   -11157.271   -389.50818   -239.90193   -696.66773   -231.95488           31           31           31 
   24600    301.01277   -9357.5949    1793.6265   -11151.221   -20.057828   -979.69972    336.96399    582.56224           31           31           31 
   24700    299.62751   -9395.1663    1785.3722   -11180.538   -205.98691    331.38833    38.436343   -987.78539           31           31           31 
   24800    288.43439   -9449.9725    1718.6765   -11168.649    -613.7164   -87.390777   -1137.0187   -616.73978           31           31           31 
   24900    294.99801   -9438.2401    1757.7867   -11196.027   -1048.5405   -1090.9328   -1508.8657     -545.823           31           31           31 
   25000    297.23295   -9337.4954    1771.1039   -11108.599    156.52613    17.695264    437.81242    14.070724           31           31           31 
   25100    300.31217   -9315.6645    1789.4519   -11105.116   -48.541815    222.34781   -201.62759   -166.34567           31           31           31 
   25200    304.84368   -9346.8852    1816.4535   -11163.339    652.66115    761.85549    629.82714    566.30081           31           31           31 
   25300    298.37027   -9389.3769    1777.8808   -11167.258    170.02355   -334.90009    359.11679    485.85395           31           31           31 
   25400    298.32714   -9438.4719    1777.6238   -11216.096   -94.067486    402.26513   -541.73721   -142.73038           31           31           31 
   25500    296.46096   -9470.0112    1766.5039   -11236.515   -581.15768    60.892367    -811.7974     -992.568           31           31           31 
   25600    288.97643   -9412.0095    1721.9063   -11133.916   -322.28994   -30.822374   -326.50854    -609.5389           31           31           31 
   25700    297.89103   -9321.8429    1775.0252   -11096.868   -54.427157    181.44801   -96.410386    -248.3191           31           31           31 
   25800    306.81601   -9276.7418     1828.206   -11104.948    432.71262    695.44792    107.95815    494.73179           31           31           31 
   25900    305.41936   -9306.8515    1819.8838   -11126.735    758.17809     1596.173    321.39949    356.96176           31           31           31 
   26000    297.05984   -9377.7716    1770.0724   -11147.844    289.77969    209.53544     417.9024    241.90123           31           31           31 
   26100    294.26486   -9417.5292    1753.4182   -11170.947    233.79884    317.63372    269.47131     114.2915           31           31           31 
   26200    302.41641   -9414.1196    1801.9903    -11216.11   -127.47515   -9.5881476   -577.42273    204.58542           31           31           31 
   26300    305.88449   -9365.9863    1822.6553   -11188.642   -113.68699    50.284856    97.395924   -488.74175           31           31           31 
   26400    300.18057    -9296.812    1788.6677    -11085.48    646.89918    931.03398    292.79571    716.86784           31           31           31 
   26500    307.69032   -9317.6127    1833.4156   -11151.028    105.53057    393.29345   -137.49789    60.796155           31           31           31 
   26600    308.69451   -9357.5901    1839.3992   -11196.989   -429.07639    84.883338   -352.22085   -1019.8917           31           31           31 
   26700     295.6936   -9380.0916    1761.9315   -11142.023   -57.942618    218.19656   -105.84807   -286.17634           31           31           31 
   26800    294.85416   -9378.2788    1756.9296   -11135.208   -511.36051    84.104017   -1079.5805   -538.60505           31           31           31 
   26900    294.97173   -9311.8526    1757.6302   -11069.483    68.778974    273.36521   -524.28142    457.25313           31           31           31 
   27000    303.86226    -9263.867    1810.6056   -11074.473   -245.21431    876.87171   -893.94954   -718.56509           31           31           31 
   27100    309.45534   -9273.4568    1843.9327    -11117.39   -435.11502   -145.41285    -459.5054   -700.42681           31           31           31 
   27200    305.38576   -9310.3111    1819.6836   -11129.995   -381.23771   -410.11487   -975.23163    241.63336           31           31           31 
   27300    298.64547   -9349.1374    1779.5206   -11128.658   -683.07109    -526.7055    -948.1325   -574.37529           31           31           31 
   27400    292.14175   -9410.8233    1740.7673   -11151.591    280.29861    56.556712    498.03342    286.30571           31           31           31 
   27500    297.70842   -9470.6261    1773.9371   -11244.563    11.444145    260.77406   -121.56491   -104.87671           31           31           31 
   27600    288.95984   -9494.1753    1721.8075   -11215.983    180.87727   -61.324771   -170.64838    774.60496           31           31           31 
   27700    301.80856   -9408.9483    1798.3684   -11207.317   -306.85627    121.10106    96.106416   -1137.7763           31           31           31 
   27800    296.73876   -9363.4949    1768.1592   -11131.654   -338.46302    -55.92242   -1074.8401    115.37345           31           31           31 
   27900    302.01309   -9347.9286    1799.5871   -11147.516    262.22893   -265.50243    335.78145    716.40777           31           31           31 
   28000    307.22924   -9340.7746    1830.6682   -11171.443    328.40777    561.55193   -14.099461    437.77083           31           31           31 
   28100    307.84817   -9370.1289    1834.3562   -11204.485    -632.1285   -309.29042   -1320.0183    -267.0768           31           31           31 
   28200    295.65043   -9432.0005    1761.6743   -11193.675    330.02002    936.38561   -320.71566    374.39011           31           31           31 
   28300    298.55074   -9431.8533    1778.9562   -11210.809   -322.73271    36.706333    142.36908   -1147.2736           31           31           31 
   28400    296.03717   -9345.5804    1763.9787   -11109.559   -223.05033   -573.74981    75.300768   -170.70194           31           31           31 
   28500    301.78843   -9305.1671    1798.2484   -11103.415    130.87423    98.319996   -261.09821    555.40092           31           31           31 
   28600    296.51807   -9320.8635    1766.8442   -11087.708     -478.415   -368.03237   -605.65622    -461.5564           31           31           31 
   28700    301.37678   -9370.5979    1795.7955   -11166.393   -455.90361    7.6452915   -293.17275   -1082.1834           31           31           31 
   28800    303.09081   -9423.0108    1806.0088    -11229.02   -156.04206   -370.18089   -152.72347    54.778189           31           31           31 
   28900    295.21007   -9439.4132    1759.0503   -11198.463   -542.34623   -59.552641   -1077.2486   -490.23744           31           31           31 
   29000    285.12637   -9410.5674    1698.9652   -11109.533     380.2602    644.01272    -301.1529    797.92077           31           31           31 
   29100    303.28303    -9366.243    1807.1542   -11173.397    173.95913    828.78896    130.82402   -437.73558           31           31           31 
   29200    294.74854   -9339.1757    1756.3002   -11095.476   -111.26486    519.67534   -538.62516   -314.84477           31           31           31 
   29300    302.14584   -9304.1198    1800.3781   -11104.498     254.4216    53.785727    -153.9421    863.42118           31           31           31 
   29400    312.22991   -9322.5837    1860.4654   -11183.049    29.102781     195.5125   -699.31977    591.11562           31           31           31 
   29500    306.19986   -9415.0633    1824.5345   -11239.598    131.05274   -342.73874    608.45578    127.44117           31           31           31 
   29600    305.44706   -9446.9423    1820.0489   -11266.991    297.22163    210.01992     568.5834    113.06157           31           31           31 
   29700     301.2128   -9465.4388    1794.8184   -11260.257   -19.918321    368.45295   -443.70039    15.492477           31           31           31 
   29800    303.86198   -9418.2082    1810.6039   -11228.812    341.58444    58.327839    757.92715    208.49834           31           31           31 
   29900    300.29128   -9368.4957    1789.3274   -11157.823    84.657461    1054.3809   -712.07926   -88.329301           31           31           31 
   30000    305.07579   -9356.6307    1817.8366   -11174.467   -246.17738   -664.78901   -587.80923    514.06611           31           31           31 
   30100    300.63441   -9360.0923     1791.372   -11151.464   -91.604586   -275.64381   -129.07492    129.90497           31           31           31 
   30200    303.66547   -9362.5002     1809.433   -11171.933    210.45623    350.54301    223.59727    57.228416           31           31           31 
   30300    298.98999   -9366.8961    1781.5735    -11148.47    562.29486    186.96342    688.09664    811.82451           31           31           31 
   30400    293.66894   -9381.0676    1749.8673   -11130.935    269.10107    181.99351    -123.0229     748.3326           31           31           31 
   30500    295.32106   -9400.7777    1759.7116   -11160.489   -212.54232   -976.68607    257.06881    81.990289           31           31           31 
   30600    302.40045   -9402.6161    1801.8952   -11204.511     768.1329    885.02956   -212.58541    1631.9546           31           31           31 
   30700    287.64751   -9421.4058    1713.9878   -11135.394     641.2785    441.46586    415.52336    1066.8463           31           31           31 
   30800    298.92128   -9383.9776    1781.1641   -11165.142    1218.5251    1153.4322    1359.8148    1142.3284           31           31           31 
   30900    305.76839   -9336.1183    1821.9635   -11158.082    389.06939    152.10287    685.91553    329.18977           31           31           31 
   31000    306.50411   -9337.1798    1826.3474   -11163.527   -153.87698   -680.14745    520.36418   -301.84767           31           31           31 
   31100     296.5687   -9431.2139    1767.1459    -11198.36    370.29454    757.19926   -24.880494    378.56487           31           31           31 
   31200    294.32733   -9441.7772    1753.7904   -11195.568   -34.143068   -216.61084    47.548394    66.633247           31           31           31 
   31300    305.73052   -9384.8483    1821.7379   -11206.586    133.66534    513.41344   -467.89996    355.48253           31           31           31 
   31400    308.11788   -9368.3203    1835.9633   -11204.284   0.82360781    342.43005   -231.34147   -108.61776           31           31           31 
   31500    294.50002   -9380.5669    1754.8194   -11135.386    283.25708   -408.86324    495.19383    763.44064           31           31           31 
   31600    293.92871   -9407.6882    1751.4152   -11159.103    919.56566    1011.7679    969.32786    777.60127           31           31           31 
   31700    292.15195    -9469.345    1740.8281   -11210.173    594.88312     318.8838     655.4872    810.27835           31           31           31 
   31800    290.03627    -9469.223    1728.2215   -11197.445   -401.25032   -331.06836     13.36171   -886.04432           31           31           31 
   31900    304.32548   -9406.0458    1813.3658   -11219.412    18.630161   -250.49356    226.93722    79.446827           31           31           31 
   32000    305.55982   -9369.0803    1820.7207   -11189.801    389.11836    394.59178    592.24188    180.52142           31           31           31 
   32100    304.41775   -9352.0801    1813.9155   -11165.996     616.9964    195.91708    1152.9678    502.10437           31           31           31 
   32200    301.95532   -9359.3011    1799.2428   -11158.544    49.678128    -75.59835    563.34263    -338.7099           31           31           31 
   32300    295.79529   -9394.8075    1762.5375   -11157.345    507.36799    805.20384    701.10277    15.797357           31           31           31 
   32400    303.22281   -9411.2709    1806.7954   -11218.066   -5.0844662    478.45439    365.91558   -859.62336           31           31           31 
   32500    304.33542   -9416.1377     1813.425   -11229.563    188.87488    159.85508    126.40463    280.36494           31           31           31 
   32600    292.93579   -9453.6298    1745.4987   -11199.129    442.13827    721.73886    331.30403    273.37192           31           31           31 
   32700    300.94193     -9465.28    1793.2044   -11258.484     144.6213   -394.40052    399.55005    428.71438           31           31           31 
   32800     302.7237   -9439.6663    1803.8213   -11243.488   -462.67555   -888.38975   -395.69502   -103.94189           31           31           31 
   32900    304.17917   -9376.5134    1812.4939   -11189.007   -122.46186     450.7482   -231.37228    -586.7615           31           31           31 
   33000    297.04578   -9343.1251    1769.9886   -11113.114    498.55711    66.813697    543.99156    884.86606           31           31           31 
   33100    301.36783   -9329.5285    1795.7422   -11125.271    168.39493    172.41097    720.12296   -387.34915           31           31           31 
   33200    304.10422   -9350.0739    1812.0473   -11162.121   -417.46685   -459.55098   -803.75022    10.900652           31           31           31 
   33300    301.60217   -9415.4683    1797.1385   -11212.607    65.267189   -483.07674    745.62722   -66.748906           31           31           31 
   33400    294.80188    -9452.522    1756.6181    -11209.14   -265.38575   -1008.1644    540.79936   -328.79217           31           31           31 
   33500    294.31111    -9429.004    1753.6937   -11182.698    119.43054   -889.15123    266.28829    981.15456           31           31           31 
   33600    310.75099   -9339.2169    1851.6531    -11190.87    173.88439   -172.08846    616.24875    77.492877           31           31           31 
   33700    299.25872   -9335.4089    1783.1747   -11118.584   -427.84416   -468.62782   -342.17249   -472.73217           31           31           31 
   33800    310.13967   -9362.1567    1848.0104   -11210.167    321.93964    76.925997    367.76761     521.1253           31           31           31 
   33900    298.68869   -9429.1886    1779.7781   -11208.967     149.4703   -578.50611    64.544185    962.37283           31           31           31 
   34000    294.79553   -9433.9854    1756.5802   -11190.566   -425.15197   -708.48042   -888.33839     321.3629           31           31           31 
   34100    300.95099   -9378.1722    1793.2584   -11171.431    -128.3792    -487.4851    190.18744   -87.839926           31           31           31 
   34200    301.83622   -9351.7728    1798.5332   -11150.306   -231.31113   -440.06067    -587.4884     333.6157           31           31           31 
   34300    297.62839   -9352.1386    1773.4602   -11125.599   -185.76732   -318.05839   -827.10842    587.86484           31           31           31 
   34400    305.39902   -9353.4585    1819.7626   -11173.221     531.2242    642.19927    553.22292    398.25041           31           31           31 
   34500    301.16903   -9415.0225    1794.5576    -11209.58    316.51394    774.15173    258.28822    -82.89814           31           31           31 
   34600    297.30547   -9477.6937    1771.5361    -11249.23    132.32991   -452.12606    220.15985    628.95596           31           31           31 
   34700     294.7549   -9455.2517    1756.3381    -11211.59    232.79204   -191.54044    292.32809    597.58847           31           31           31 
   34800    298.31049   -9404.9922    1777.5246   -11182.517    74.178048   -19.926864    247.20225   -4.7412439           31           31           31 
   34900    307.32438   -9364.8613    1831.2351   -11196.096   -180.35995    82.222319   -323.47058   -299.83159           31           31           31 
   35000    296.55589   -9368.3739    1767.0696   -11135.444    426.73162    1143.7815   -5.9147629    142.32809           31           31           31 
   35100    297.25088   -9363.4478    1771.2108   -11134.659    22.330621    770.31653   -394.33483   -308.98984           31           31           31 
   35200    304.36148   -9329.2296    1813.5803    -11142.81   -50.857104   -495.42066    55.728279    287.12107           31           31           31 
   35300    305.54664   -9231.5441    1820.6422   -11052.186    24.294145    345.82613   -277.57702    4.6333225           31           31           31 
   35400     304.0737   -9232.5537    1811.8655   -11044.419   -332.38987   -531.25427    476.76402   -942.67935           31           31           31 
   35500    302.75295   -9293.9625    1803.9956   -11097.958    346.86312   -16.046288    945.75248    110.88318           31           31           31 
   35600    300.34192   -9336.3897    1789.6292   -11126.019    265.57486    184.94468    212.60551    399.17439           31           31           31 
   35700    296.36105   -9357.8152    1765.9086   -11123.724     492.9567    104.27157    787.16303    587.43549           31           31           31 
   35800    297.67956   -9350.5641    1773.7651   -11124.329    352.79336    42.651453    777.52408    238.20454           31           31           31 
   35900    301.14519   -9291.4477    1794.4156   -11085.863    318.12804    114.17326     387.4302    452.78066           31           31           31 
   36000    306.02508   -9263.6453    1823.4931   -11087.138    177.92148   -12.075866    458.59312    87.247197           31           31           31 
   36100    299.04235   -9286.5868    1781.8855   -11068.472    582.49919    671.59338    504.00144    571.90275           31           31           31 
   36200    293.21055   -9327.6284    1747.1359   -11074.764    900.44487    1483.7702    882.70675    334.85771           31           31           31 
   36300    299.06546   -9362.6782    1782.0232   -11144.701    431.36178   -163.03949    87.570359    1369.5545           31           31           31 
   36400    297.04949   -9395.3581    1770.0108   -11165.369     508.8681    456.19482    479.16201    591.24748           31           31           31 
   36500    297.98965   -9418.8495    1775.6128   -11194.462   -199.03944   -109.27276    276.90052   -764.74608           31           31           31 
   36600    294.13071   -9393.7566    1752.6188   -11146.375    445.47968    462.20315   -171.66411       1045.9           31           31           31 
   36700    311.23576   -9343.8849    1854.5416   -11198.427     291.5193    554.52008    298.79379    21.244035           31           31           31 
   36800    306.92661   -9372.6688    1828.8649   -11201.534   -569.24091   -115.18732   -117.64189   -1474.8935           31           31           31 
   36900    302.31581   -9422.4753    1801.3908   -11223.866   -190.48182   -588.10749    258.78966   -242.12764           31           31           31 
   37000    293.88525   -9472.8667    1751.1562   -11224.023   -151.76783    -676.4423    162.30802     58.83081           31           31           31 
   37100    297.02494   -9450.0515    1769.8645   -11219.916    391.49181     295.3289    618.62315    260.52339           31           31           31 
   37200    301.09494      -9362.7    1794.1161   -11156.816   -161.14975    307.92591   -306.55055   -484.82463           31           31           31 
   37300    306.34282   -9326.6146    1825.3864   -11152.001    685.62577    932.82045    790.41888    333.63796           31           31           31 
   37400    301.61942   -9344.5294    1797.2413   -11141.771   -146.36897    428.29125   -491.02458   -376.37358           31           31           31 
   37500    298.04179   -9397.8067    1775.9235    -11173.73     247.8126    340.20331    -139.0364    542.27089           31           31           31 
   37600    292.46386   -9458.1621    1742.6867   -11200.849    1013.8577    1532.4785    1439.8658    69.228955           31           31           31 
   37700    300.18642    -9450.042    1788.7026   -11238.745    435.65362    571.97418   -28.170596    763.15727           31           31           31 
   37800    301.48173   -9436.6382    1796.4209   -11233.059    182.08019    834.03629    71.748918   -359.54463           31           31           31 
   37900    292.91034   -9422.3014     1745.347   -11167.648   -297.55798   -617.67653   -260.29897   -14.698448           31           31           31 
   38000    297.04159   -9359.7595    1769.9637   -11129.723    47.671877    94.919675   -409.77011    457.86606           31           31           31 
   38100    307.55864   -9326.8688     1832.631     -11159.5    371.03309    1053.3269   -433.24481    493.01714           31           31           31 
   38200    301.80447   -9354.7548     1798.344   -11153.099    1029.5871    1023.9608    1045.4608    1019.3396           31           31           31 
   38300     303.4414   -9416.4463    1808.0978   -11224.544    80.056188   -231.63991    766.41286   -294.60439           31           31           31 
   38400    291.54662   -9430.5992    1737.2211    -11167.82   -630.23108   -263.52919   -888.27749   -738.88656           31           31           31 
   38500    296.37665   -9405.4507    1766.0015   -11171.452    329.40878    206.56997    267.14711    514.50926           31           31           31 
   38600    303.75743   -9385.9743     1809.981   -11195.955   -32.611435    68.310838   -58.176953   -107.96819           31           31           31 
   38700    296.77063   -9386.0374    1768.3491   -11154.387   -457.86189   -846.49739   -801.31142    274.22315           31           31           31 
   38800    302.22922   -9361.3177    1800.8749   -11162.193    119.99804   -546.18834    635.60234    270.58012           31           31           31 
   38900    308.33236    -9304.182    1837.2413   -11141.423   -163.54975   -740.17702   -323.49941    573.02719           31           31           31 
   39000    304.19007   -9264.4823    1812.5589   -11077.041    22.665267   -555.84942    127.20131    496.64391           31           31           31 
   39100     299.6303   -9294.4839    1785.3889   -11079.873   -220.03193   -593.34501    -36.67314    -30.07763           31           31           31 
   39200    297.61327   -9376.7837    1773.3701   -11150.154    -72.38712    51.696246   -247.14085   -21.716759           31           31           31 
   39300    300.60057   -9401.5517    1791.1704   -11192.722     416.3208    570.88651    196.86649     481.2094           31           31           31 
   39400    301.14546   -9400.3465    1794.4172   -11194.764   -274.36684    403.93057   -737.28201   -489.74909           31           31           31 
   39500    296.72984    -9427.011    1768.1061   -11195.117   -51.764352     405.4767   -927.29638    366.52662           31           31           31 
   39600    289.06554   -9419.6862    1722.4373   -11142.123    478.26172    783.13022     895.6917   -244.03677           31           31           31 
   39700    303.20697   -9334.2323     1806.701   -11140.933    739.57323    1235.0324    608.49176    375.19552           31           31           31 
   39800    304.60789   -9344.0636    1815.0485   -11159.112    57.393151    164.33765    322.71926   -314.87745           31           31           31 
   39900    298.61168   -9386.9199    1779.3193   -11166.239    239.43464   -473.67176    568.94989     623.0258           31           31           31 
   40000    289.40932   -9454.0318    1724.4858   -11178.518    303.43467   -387.66532    604.79002    693.17932           31           31           31 
   40100    293.83875   -9435.2191    1750.8791   -11186.098   -92.027652    61.266657    575.90623   -913.25585           31           31           31 
   40200    296.69665   -9403.4901    1767.9083   -11171.398    339.79476    855.22408    1096.0509   -931.89071           31           31           31 
   40300    305.74527   -9376.0927    1821.8258   -11197.919   -92.847567    604.92113    501.65923   -1385.1231           31           31           31 
   40400     300.0574   -9348.8454    1787.9338   -11136.779   -670.36111   -773.64746   -459.12413   -778.31173           31           31           31 
   40500    295.82797   -9332.8053    1762.7322   -11095.537    78.351623   -124.26486    779.00052   -419.68079           31           31           31 
   40600    313.43603   -9249.9468    1867.6523   -11117.599   -201.90337   -110.68349    809.89303   -1304.9197           31           31           31 
   40700     303.1808   -9256.8012    1806.5451   -11063.346    542.41573     114.7573     1083.144    429.34585           31           31           31 
   40800    303.72328   -9319.1279    1809.7775   -11128.905    38.631564   -95.613945    371.38968   -159.88105           31           31           31 
   40900    301.10947   -9351.1923    1794.2027   -11145.395    -266.5346   -49.540447   -78.709349   -671.35399           31           31           31 
   41000    293.47186   -9335.1635     1748.693   -11083.856   -842.71572   -942.62453   -887.66581   -697.85681           31           31           31 
   41100    301.41764    -9283.641     1796.039    -11079.68    505.87126    564.73072    493.05129    459.83178           31           31           31 
   41200    302.09354   -9295.1473    1800.0664   -11095.214   -117.23696   -730.19805    571.41213   -192.92497           31           31           31 
   41300    291.20058   -9322.0441    1735.1592   -11057.203    194.12037    282.43872    442.90426   -142.98188           31           31           31 
   41400    301.30347    -9318.027    1795.3587   -11113.386    600.62952    547.37961    15.079157    1239.4298           31           31           31 
   41500    298.72685   -9316.7749    1780.0055    -11096.78   -295.28211   -438.66179   -284.26319   -162.92136           31           31           31 
   41600     297.6837   -9362.5899    1773.7898    -11136.38   -344.99002   -271.95546   -135.36863   -627.64598           31           31           31 
   41700    291.38407   -9411.1517    1736.2526   -11147.404   -323.11828   -835.22203    175.77082   -309.90364           31           31           31 
   41800    295.76595   -9390.0328    1762.3626   -11152.395    849.61793    1292.1264    421.02906    835.69837           31           31           31 
   41900    308.30076   -9322.4543     1837.053   -11159.507   -82.769953   -536.37332   -216.92748    504.99094           31           31           31 
   42000    312.65422   -9303.0745    1862.9937   -11166.068   -246.80306   -276.55836    82.074175   -545.92498           31           31           31 
   42100    295.67311   -9314.5843    1761.8094   -11076.394   -27.458123   -283.22472   -5.9812306    206.83158           31           31           31 
   42200    300.66852   -9328.9062    1791.5752   -11120.481   -367.70107   -809.81974   -998.07318    704.78971           31           31           31 
   42300    303.15919   -9331.9186    1806.4162   -11138.335   -800.11431    57.260487   -994.41937   -1463.1841           31           31           31 
   42400    294.36912   -9317.4568    1754.0394   -11071.496     -9.82976   -142.62301    270.70974   -157.57601           31           31           31 
   42500    305.53782   -9257.4398    1820.5897   -11078.029   -62.427393   -242.24711    81.486997    -26.52207           31           31           31 
   42600    305.48941   -9186.1801    1820.3012   -11006.481    649.57205    525.12338    459.11037    964.48239           31           31           31 
   42700    299.09858    -9229.548    1782.2206   -11011.769    977.92271     1710.459    540.80122    682.50787           31           31           31 
   42800    307.91429   -9254.4765    1834.7502   -11089.227   -60.369422   -4.8206079   -858.12385    681.83619           31           31           31 
   42900    299.60038   -9299.6428    1785.2106   -11084.853     207.1643    232.28222   -51.694263    440.90495           31           31           31 
   43000    303.01117   -9355.2348    1805.5343   -11160.769    65.418378    208.63681    181.52489   -193.90656           31           31           31 
   43100    298.09207   -9383.7341    1776.2231   -11159.957    78.926985   -234.58117    430.22129    41.140834           31           31           31 
   43200    299.92403    -9383.204    1787.1391   -11170.343    348.71866    -105.1848    583.68284    567.65793           31           31           31 
   43300    304.29963    -9304.922    1813.2117   -11118.134    476.94594     1065.636     714.6819   -349.48008           31           31           31 
   43400    307.01285   -9263.7708    1829.3788    -11093.15    1054.0724    1521.9527     1272.945    367.31959           31           31           31 
   43500    297.19821   -9300.0957    1770.8969   -11070.993    574.56447     537.5672    365.49516    820.63106           31           31           31 
   43600    299.77558   -9356.2617    1786.2546   -11142.516    462.34898   -14.405855    912.37604    489.07676           31           31           31 
   43700    297.25699    -9376.955    1771.2472   -11148.202    9.4540639   -176.12213    159.06352     45.42081           31           31           31 
   43800    298.89963   -9357.4389    1781.0351   -11138.474   -69.652159   -287.75786    601.33018   -522.52879           31           31           31 
   43900    308.40547   -9334.3719    1837.6769   -11172.049     728.5415    1335.4173    251.39924    598.80798           31           31           31 
   44000    303.10945   -9347.1924    1806.1199   -11153.312    581.02985     837.7885    681.59112    223.70995           31           31           31 
   44100    296.82404   -9358.6998    1768.6674   -11127.367    290.82894    483.21429   -6.6548243    395.92737           31           31           31 
   44200    301.78389   -9340.8389    1798.2213    -11139.06    1111.7685    1017.8122     521.8384    1795.6549           31           31           31 
   44300    294.39241   -9345.3307    1754.1782   -11099.509   -55.354243    276.61263    121.55012   -564.22548           31           31           31 
   44400    301.23958   -9353.6056     1794.978   -11148.584   -201.35494   -635.94632    472.08967   -440.20818           31           31           31 
   44500    301.91821   -9406.5211    1799.0217   -11205.543    764.56232    795.42304    595.87018    902.39374           31           31           31 
   44600    293.57795   -9467.8208    1749.3251   -11217.146    629.17828    924.21527    648.00123    315.31835           31           31           31 
   44700    298.65873    -9430.345    1779.5996   -11209.945    485.58021     513.3356    601.01076    342.39427           31           31           31 
   44800    302.81744   -9397.6329    1804.3799   -11202.013    439.08865    383.47568    755.35392    178.43634           31           31           31 
   44900    302.71673   -9395.8746    1803.7798   -11199.654    487.23122    279.29992    19.907729     1162.486           31           31           31 
   45000    302.39121   -9416.3987    1801.8402   -11218.239    524.74488   -480.01201    734.39764     1319.849           31           31           31 
   45100    303.19109   -9425.4584    1806.6063   -11232.065    133.91626    371.05191    236.81491   -206.11805           31           31           31 
   45200    292.89557    -9405.409     1745.259   -11150.668    393.04347    614.17293    312.20802    252.74945           31           31           31 
   45300    302.10197   -9347.5195    1800.1167   -11147.636    292.47772    272.93208    -73.99338    678.49446           31           31           31 
   45400    305.54266    -9318.615    1820.6185   -11139.233    96.244376    629.64714    98.476166   -439.39018           31           31           31 
   45500    300.91849   -9309.9208    1793.0647   -11102.985     300.9127    498.17384   -277.20491    681.76916           31           31           31 
   45600    297.96066   -9280.4006    1775.4401   -11055.841   -246.98388   -840.04867    217.13178   -118.03476           31           31           31 
   45700    305.44487   -9216.2114    1820.0358   -11036.247   -36.932302   -71.770486   -1054.7595    1015.7331           31           31           31 
   45800     308.2407   -9233.1041    1836.6952   -11069.799    35.719458   -272.30945    29.451857    350.01597           31           31           31 
   45900    312.13443   -9321.6773    1859.8965   -11181.574    340.82895    623.68469    115.27977     283.5224           31           31           31 
   46000    296.85213    -9366.667    1768.8347   -11135.502    691.59204    168.30885    541.19707    1365.2702           31           31           31 
   46100     297.2597   -9383.1034    1771.2633   -11154.367    425.81219    653.30448    686.16535   -62.033257           31           31           31 
   46200    302.20239   -9390.5519     1800.715   -11191.267     280.5438   -284.36705    528.55767    597.44079           31           31           31 
   46300    302.07984   -9362.4156    1799.9848     -11162.4   -360.77997   -134.28141   -305.93774   -642.12077           31           31           31 
   46400    305.15749   -9322.6163    1818.3234    -11140.94    61.548711    671.36064   -579.48907    92.774564           31           31           31 
   46500     300.0369   -9291.1703    1787.8117   -11078.982    289.65382    289.51717   -7.9172088    587.36151           31           31           31 
   46600    305.79969   -9305.4947      1822.15   -11127.645    573.69512    398.14775    517.32906    805.60855           31           31           31 
   46700    294.21287   -9391.1277    1753.1084   -11144.236    224.41739    447.41947    233.77642   -7.9437286           31           31           31 
   46800    299.35304   -9432.3048    1783.7368   -11216.042    414.29882    40.225489     383.2959    819.37508           31           31           31 
   46900    291.30482   -9438.0352    1735.7804   -11173.816    231.16435    404.28606     89.35332    199.85368           31           31           31 
   47000     301.5751   -9366.2011    1796.9772   -11163.178    478.15247    513.86574    326.53539    594.05628           31           31           31 
   47100     306.2214   -9334.2358    1824.6629   -11158.899    484.76733   -151.34278    473.18439    1132.4604           31           31           31 
   47200    304.93218   -9352.0034    1816.9809   -11168.984     7.378879    150.21657    437.90607   -565.98601           31           31           31 
   47300    302.67353   -9395.2954    1803.5224   -11198.818   -82.608117    622.75168     226.2334   -1096.8094           31           31           31 
   47400    292.94307   -9424.7093    1745.5421   -11170.251    424.22859    691.44238    139.57395    441.66943           31           31           31 
   47500    301.92048   -9410.5911    1799.0352   -11209.626    546.08837    -97.73396    694.86778    1041.1313           31           31           31 
   47600    306.78335   -9331.3371    1828.0113   -11159.348    599.95845    1209.1793   -298.10608    888.80213           31           31           31 
   47700    303.28298   -9323.2177    1807.1539   -11130.372   -45.118754    760.90205   -328.25612    -568.0022           31           31           31 
   47800    300.62945   -9374.5214    1791.3425   -11165.864    75.123262    363.71824   -478.30825     339.9598           31           31           31 
   47900    294.25933   -9403.0646    1753.3852    -11156.45   -372.10265   -974.34391   -464.10914    322.14509           31           31           31 
   48000    299.02303   -9343.8423    1781.7704   -11125.613    547.34928    680.62734    762.02073    199.39976           31           31           31 
   48100    298.83445   -9275.3552    1780.6467   -11056.002    465.66752    1373.3529   -317.42208    341.07176           31           31           31 
   48200     304.4437   -9289.9444    1814.0702   -11104.015     256.4174    336.93774    205.37904    226.93542           31           31           31 
   48300    297.19765    -9344.473    1770.8936   -11115.367    171.11413     170.3037   -278.67601    621.71469           31           31           31 
   48400    303.76529    -9357.378    1810.0278   -11167.406     795.8275    661.82011     339.7328    1385.9296           31           31           31 
   48500    298.08333   -9332.3556     1776.171   -11108.527    799.14704    794.97424    1076.0938    526.37306           31           31           31 
   48600    305.23081    -9238.811    1818.7603   -11057.571    922.51757    1049.1857    513.87116    1204.4959           31           31           31 
   48700    311.61625   -9238.6599    1856.8088   -11095.469    580.53703     575.3887    539.46085    626.76153           31           31           31 
   48800    304.68753   -9291.7241    1815.5231   -11107.247    251.81705    100.25152    297.40933     357.7903           31           31           31 
   48900    298.37363   -9348.4611    1777.9009   -11126.362    1175.4092    855.67055    1647.4554    1023.1017           31           31           31 
   49000    299.16333   -9348.3962    1782.6064   -11131.003    1102.4123    995.31192      682.315    1629.6099           31           31           31 
   49100    291.45183   -9350.6554    1736.6563   -11087.312     286.2471   -156.54485    18.626722    996.65943           31           31           31 
   49200    302.23685   -9334.0246    1800.9204   -11134.945    552.81323   -47.377553    1403.3333    302.48395           31           31           31 
   49300    305.67277   -9260.3735    1821.3938   -11081.767    808.57279    624.11764    370.08584    1431.5149           31           31           31 
[...]
 2341000    306.41361   -9295.2952    1825.8082   -11121.103    -323.7139   -172.24657   -609.64832   -189.24682    30.973532    30.973532    30.973532 
 2342000    298.66097    -9295.288     1779.613   -11074.901   -217.35377   -329.61762   -402.10546    79.661759    30.973532    30.973532    30.973532 
 2343000    301.80661   -9295.2595    1798.3567   -11093.616    436.70351    310.92172    60.250252    938.93856    30.973532    30.973532    30.973532 
 2344000    304.93922   -9295.4031    1817.0228   -11112.426    85.603139   -314.46961    60.137597    511.14143    30.973532    30.973532    30.973532 
 2345000    310.09955   -9295.3116    1847.7714   -11143.083    141.49956    529.92218    502.48432   -607.90783    30.973532    30.973532    30.973532 
 2346000    307.32589   -9295.3283    1831.2441   -11126.572    238.08722   -280.10602    917.93213    76.435552    30.973532    30.973532    30.973532 
 2347000    303.87366   -9295.2229    1810.6735   -11105.896   -97.721213   -768.85957    473.42211    2.2738173    30.973532    30.973532    30.973532 
 2348000    302.14228    -9295.271    1800.3569   -11095.628    531.30648    150.27986    423.01926    1020.6203    30.973532    30.973532    30.973532 
 2349000    305.68473   -9295.2511     1821.465   -11116.716    803.99655    693.76289    888.79656    829.43019    30.973532    30.973532    30.973532 
 2350000    298.58224   -9295.1205    1779.1439   -11074.264    527.15093   -9.3658183    251.47615    1339.3425    30.973532    30.973532    30.973532 
 2351000    297.04355   -9295.0568    1769.9754   -11065.032   -30.365885   -110.55643   -220.54856    240.00733    30.973532    30.973532    30.973532 
 2352000    306.16655   -9295.0892     1824.336   -11119.425    207.02943    1404.5135   -511.24632   -272.17887    30.973532    30.973532    30.973532 
 2353000    302.58419   -9295.3768    1802.9901   -11098.367    140.98227   -36.587527    208.89011    250.64424    30.973532    30.973532    30.973532 
 2354000    296.25352   -9295.1403    1765.2678   -11060.408    260.65382   -165.08704    575.45025    371.59827    30.973532    30.973532    30.973532 
 2355000    305.21895    -9295.302    1818.6896   -11113.992    54.470437   -909.54349    552.48358    520.47122    30.973532    30.973532    30.973532 
 2356000    299.75311   -9295.1244    1786.1207   -11081.245    389.08451    159.51291    890.68337    117.05725    30.973532    30.973532    30.973532 
 2357000     306.0305   -9295.2853    1823.5254   -11118.811     313.6612    237.73923    629.63682    73.607554    30.973532    30.973532    30.973532 
 2358000    304.39035   -9295.2149    1813.7523   -11108.967   -309.87573    107.90632   -827.56386   -209.96964    30.973532    30.973532    30.973532 
 2359000    305.20294   -9295.2244    1818.5943   -11113.819   -5.0876862     114.8437    288.84482   -418.95157    30.973532    30.973532    30.973532 
 2360000    303.14593   -9295.1842    1806.3373   -11101.521    571.94809     1141.468    245.53624       328.84    30.973532    30.973532    30.973532 
 2361000    309.75259   -9295.2703     1845.704   -11140.974    798.25619    1841.3987     452.1107    101.25922    30.973532    30.973532    30.973532 
 2362000    302.65957   -9295.1774    1803.4392   -11098.617    836.39066    908.87234    1232.6558    367.64383    30.973532    30.973532    30.973532 
 2363000    301.21709   -9295.1315     1794.844   -11089.975   -84.056251    4.1638347    30.867176   -287.19976    30.973532    30.973532    30.973532 
 2364000    304.77138   -9295.1856    1816.0227   -11111.208    139.20556    520.92891    107.37183   -210.68406    30.973532    30.973532    30.973532 
 2365000    295.04615   -9295.0739    1758.0736   -11053.147     -90.2937    36.908147    683.45498   -991.24423    30.973532    30.973532    30.973532 
 2366000    304.52741   -9295.0912     1814.569    -11109.66    476.26621    252.90645    -8.350321    1184.2425    30.973532    30.973532    30.973532 
 2367000    297.94293   -9295.0923    1775.3345   -11070.427   -8.5089079    15.333453   -396.09775    355.23757    30.973532    30.973532    30.973532 
 2368000    305.99847   -9295.1369    1823.3345   -11118.471     89.01469   -124.38175    437.17085   -45.745031    30.973532    30.973532    30.973532 
 2369000    315.80984   -9295.1762    1881.7969   -11176.973    335.27868    837.53409    623.42036   -455.11842    30.973532    30.973532    30.973532 
 2370000    308.01728   -9295.2147    1835.3639   -11130.579   -710.73399   -541.99069   -620.96084   -969.25044    30.973532    30.973532    30.973532 
 2371000    303.03126   -9295.1361     1805.654    -11100.79    265.85818    270.47407    402.90483    124.19565    30.973532    30.973532    30.973532 
 2372000    298.21012    -9295.021    1776.9265   -11071.948    4.6864311    368.92762    340.64736   -695.51568    30.973532    30.973532    30.973532 
 2373000    303.12605   -9295.1698    1806.2188   -11101.389    627.50209    646.78023    450.04127    785.68478    30.973532    30.973532    30.973532 
 2374000    303.11212   -9295.0658    1806.1358   -11101.202   -568.99606   -1163.6525   -555.84943    12.513771    30.973532    30.973532    30.973532 
 2375000    299.33352   -9295.1167    1783.6205   -11078.737    579.62921    1081.4708    -57.73493    715.15174    30.973532    30.973532    30.973532 
 2376000    312.70874   -9295.2316    1863.3186    -11158.55    561.56355    490.60778    942.72307    251.35979    30.973532    30.973532    30.973532 
 2377000    299.69722   -9295.1222    1785.7876    -11080.91    22.899877    1225.7971   -355.79565   -801.30186    30.973532    30.973532    30.973532 
 2378000    300.84634   -9295.0208    1792.6348   -11087.656   -135.40857   -236.59854    33.340573   -202.96775    30.973532    30.973532    30.973532 
 2379000    303.47447    -9294.969    1808.2949   -11103.264     740.0561    740.58725    1111.8153    367.76578    30.973532    30.973532    30.973532 
 2380000    297.62255   -9295.0507    1773.4254   -11068.476    760.97334    651.59989    1451.9996    179.32054    30.973532    30.973532    30.973532 
 2381000    303.55581   -9294.9631    1808.7796   -11103.743    58.456305    319.93349   -555.44005    410.87547    30.973532    30.973532    30.973532 
 2382000    313.48595   -9295.0971    1867.9497   -11163.047    384.29896    1073.9268   -836.52204    915.49214    30.973532    30.973532    30.973532 
 2383000    313.29957     -9295.14    1866.8391   -11161.979    179.60789    563.36406   -219.76793    195.22754    30.973532    30.973532    30.973532 
 2384000      304.356   -9295.0931    1813.5476   -11108.641    81.616584     495.4883    873.91916   -1124.5577    30.973532    30.973532    30.973532 
 2385000    309.97499   -9295.1357    1847.0291   -11142.165    893.28364    597.30042    1520.1261    562.42443    30.973532    30.973532    30.973532 
 2386000    302.20079   -9295.0318    1800.7055   -11095.737    213.02489    240.18923    406.50548   -7.6200384    30.973532    30.973532    30.973532 
 2387000    309.37259   -9295.1196    1843.4396   -11138.559    577.29001    728.29219    660.19938    343.37845    30.973532    30.973532    30.973532 
 2388000    298.84478   -9294.9974    1780.7083   -11075.706    794.95155    297.97129    1098.9639    987.91948    30.973532    30.973532    30.973532 
 2389000    301.39633   -9295.0498     1795.912   -11090.962    816.49897    604.75306       670.19    1174.5539    30.973532    30.973532    30.973532 
 2390000    310.70835   -9295.3138     1851.399   -11146.713    524.60103    1129.9346    747.52438   -303.65585    30.973532    30.973532    30.973532 
 2391000    299.42956   -9295.0882    1784.1927   -11079.281    254.59863      374.372    162.96376    226.46013    30.973532    30.973532    30.973532 
 2392000    306.34581   -9295.2089    1825.4042   -11120.613   -0.3317258    288.66926    357.71983   -647.38427    30.973532    30.973532    30.973532 
 2393000    315.53233    -9295.089    1880.1433   -11175.232    305.13329     189.9002    315.27391    410.22576    30.973532    30.973532    30.973532 
 2394000    301.68647   -9295.0408    1797.6409   -11092.682    910.98308    868.18416    1461.1138    403.65126    30.973532    30.973532    30.973532 
 2395000    306.76856   -9294.8173    1827.9232   -11122.741    848.54944    1374.9292    679.19281    491.52635    30.973532    30.973532    30.973532 
 2396000    307.49821   -9294.9608    1832.2709   -11127.232    1205.4214     622.1781    1441.9324    1552.1536    30.973532    30.973532    30.973532 
 2397000    298.35324   -9294.8617    1777.7794   -11072.641    1112.4507    1606.2693    655.07703    1076.0057    30.973532    30.973532    30.973532 
 2398000    315.40467   -9295.1136    1879.3827   -11174.496   -194.10704   -455.19737    452.88491   -580.00867    30.973532    30.973532    30.973532 
 2399000    298.43034   -9294.8047    1778.2388   -11073.043   -171.31831   -246.30211   -201.11788   -66.534928    30.973532    30.973532    30.973532 
 2400000    306.66816   -9294.9038     1827.325   -11122.229    16.426537    543.99722   -177.26811    -317.4495    30.973532    30.973532    30.973532 
 2401000    295.74257   -9294.7672    1762.2233   -11056.991    716.96222    859.37871    1021.3219    270.18607    30.973532    30.973532    30.973532 
 2402000    319.04195   -9295.1278    1901.0559   -11196.184    510.37905    334.67762    807.13163    389.32789    30.973532    30.973532    30.973532 
 2403000    303.99648    -9294.916    1811.4053   -11106.321    4.3381175    106.72201    173.62343   -267.33108    30.973532    30.973532    30.973532 
 2404000    298.10058   -9294.8196    1776.2738   -11071.093   -348.18689   -96.419667   -282.86184   -665.27915    30.973532    30.973532    30.973532 
 2405000    305.93861   -9294.9303    1822.9778   -11117.908    213.05584   -90.472859   -222.67659    952.31697    30.973532    30.973532    30.973532 
 2406000    301.42816   -9294.9293    1796.1017   -11091.031    978.28418    565.61402    1530.3785    838.86006    30.973532    30.973532    30.973532 
 2407000    310.77969   -9294.9872    1851.8241   -11146.811    291.93615    914.16432   -188.17388    149.81802    30.973532    30.973532    30.973532 
 2408000     309.3689   -9294.8864    1843.4177   -11138.304    523.64601    1139.6461   -43.496284    474.78824    30.973532    30.973532    30.973532 
 2409000     297.3352   -9294.9776    1771.7132   -11066.691    -470.9789    63.261139         -498   -978.19784    30.973532    30.973532    30.973532 
 2410000    299.61447   -9294.9895    1785.2946   -11080.284   -140.53144    671.35317   -655.43157   -437.51593    30.973532    30.973532    30.973532 
 2411000    308.22641   -9294.9074      1836.61   -11131.517    695.62374    831.89671    927.02082    327.95368    30.973532    30.973532    30.973532 
 2412000    310.06763   -9294.9178    1847.5812   -11142.499     484.5941    397.95789    644.72846    411.09595    30.973532    30.973532    30.973532 
 2413000    307.07319   -9294.8407    1829.7384   -11124.579    487.89794    621.11326    705.48787    137.09268    30.973532    30.973532    30.973532 
 2414000    299.17836   -9294.5391    1782.6959   -11077.235   -86.044096   -1031.2284    337.69434    435.40172    30.973532    30.973532    30.973532 
 2415000    300.93228   -9294.7777    1793.1469   -11087.925      121.118    122.81174    635.00405   -394.46178    30.973532    30.973532    30.973532 
 2416000    306.83877   -9294.8018    1828.3415   -11123.143    111.68641    106.28436    954.80003   -726.02516    30.973532    30.973532    30.973532 
 2417000    308.48554   -9294.8611    1838.1541   -11133.015    805.47736    891.07565    802.21869    723.13772    30.973532    30.973532    30.973532 
 2418000    304.07642    -9294.812    1811.8817   -11106.694   -429.19544   -1096.2961   -245.39129    54.101038    30.973532    30.973532    30.973532 
 2419000    302.07471   -9294.7542    1799.9542   -11094.708    417.06079    960.70417   -77.732266    368.21045    30.973532    30.973532    30.973532 
 2420000    308.34562   -9294.9307    1837.3203   -11132.251    106.77147   -220.99395   -196.38908    737.69746    30.973532    30.973532    30.973532 
 2421000     301.9192   -9294.7605    1799.0276   -11093.788     791.3537   -454.20906    1672.9851     1155.285    30.973532    30.973532    30.973532 
 2422000    308.28922    -9294.869    1836.9842   -11131.853    714.71109   -48.711428    1560.7925    632.05222    30.973532    30.973532    30.973532 
 2423000     305.6618   -9294.8696    1821.3284   -11116.198    134.04427    784.65814   -1177.6193      795.094    30.973532    30.973532    30.973532 
 2424000      304.303   -9294.7474    1813.2318   -11107.979   -421.16949   -384.00261   -90.780004   -788.72586    30.973532    30.973532    30.973532 
 2425000    305.42074    -9294.884     1819.892   -11114.776    458.49174     1324.583    989.59961   -938.70736    30.973532    30.973532    30.973532 
 2426000    304.66649   -9294.7289    1815.3977   -11110.127   -82.513371   -219.90529    459.87208   -487.50691    30.973532    30.973532    30.973532 
 2427000    300.13618   -9294.7263    1788.4033    -11083.13    640.85171      545.598    1294.8803    82.076822    30.973532    30.973532    30.973532 
 2428000    306.54733   -9294.8336     1826.605   -11121.439    306.15367    833.87979   -34.580676    119.16189    30.973532    30.973532    30.973532 
 2429000    302.76058   -9294.7942    1804.0411   -11098.835   -335.28815   -1010.7974   -101.61825    106.55119    30.973532    30.973532    30.973532 
 2430000    311.62366   -9294.8379     1856.853   -11151.691   -206.24526    169.03862   -1377.7127    589.93829    30.973532    30.973532    30.973532 
 2431000    304.91923   -9294.7017    1816.9037   -11111.605    225.13994   -229.84484    29.649653      875.615    30.973532    30.973532    30.973532 
 2432000    309.78611   -9294.7437    1845.9037   -11140.647   -936.83209   -472.44189   -1695.6963   -642.35808    30.973532    30.973532    30.973532 
 2433000    300.54315   -9294.5965    1790.8282   -11085.425    113.47244    472.68885    422.18117    -554.4527    30.973532    30.973532    30.973532 
 2434000    307.72407   -9294.6652    1833.6167   -11128.282    209.35722     644.5358   -560.87837    544.41423    30.973532    30.973532    30.973532 
 2435000    309.68679   -9294.7661    1845.3119   -11140.078    604.65355    646.42297    577.35987    590.17781    30.973532    30.973532    30.973532 
 2436000    299.28356   -9294.6374    1783.3228    -11077.96    213.14244      585.867    50.409441    3.1508652    30.973532    30.973532    30.973532 
 2437000    305.20865   -9294.8435    1818.6282   -11113.472   -165.23535   -829.18065    197.81284    135.66175    30.973532    30.973532    30.973532 
 2438000    298.18318   -9294.6969     1776.766   -11071.463    105.75679    44.747127   -206.54801    479.07125    30.973532    30.973532    30.973532 
 2439000    307.61099   -9294.8859    1832.9429   -11127.829    393.22596     803.8723    546.94165   -171.13606    30.973532    30.973532    30.973532 
 2440000    305.95501   -9294.7189    1823.0756   -11117.794   -3.0760241   -190.16659    116.98116    63.957351    30.973532    30.973532    30.973532 
 2441000     299.5862   -9294.8181    1785.1261   -11079.944      421.855    1189.5515    450.20892    -374.1954    30.973532    30.973532    30.973532 
 2442000    303.29122   -9294.7343     1807.203   -11101.937   -101.02536    182.76988   -123.69109   -362.15487    30.973532    30.973532    30.973532 
 2443000     307.0132   -9294.7113    1829.3809   -11124.092    71.966486    114.29343   -676.95002    778.55605    30.973532    30.973532    30.973532 
 2444000    302.57449   -9294.7095    1802.9322   -11097.642     258.6738    428.49724    101.10494    246.41923    30.973532    30.973532    30.973532 
 2445000    301.67279   -9294.6172    1797.5594   -11092.177    94.549857     303.9435   -657.69013     637.3962    30.973532    30.973532    30.973532 
 2446000    305.72927   -9294.8403    1821.7305   -11116.571    461.85158      135.118    521.31706    729.11968    30.973532    30.973532    30.973532 
 2447000    308.14788   -9294.8445    1836.1421   -11130.987      377.769    1512.7544    183.48349   -562.93091    30.973532    30.973532    30.973532 
 2448000    295.71143   -9294.7105    1762.0377   -11056.748    481.54016    1039.8584     221.8042    182.95785    30.973532    30.973532    30.973532 
 2449000    309.60366   -9294.7997    1844.8165   -11139.616    135.30946    453.71077    847.44472   -895.22711    30.973532    30.973532    30.973532 
 2450000    304.69776   -9294.6732     1815.584   -11110.257    27.645306    1069.5897   -410.46259   -576.19116    30.973532    30.973532    30.973532 
 2451000    306.22012    -9294.612    1824.6552   -11119.267    210.77535    17.859468    88.872157    525.59443    30.973532    30.973532    30.973532 
 2452000    299.83635   -9294.5655    1786.6167   -11081.182     4.490453   -100.79504    24.717135    89.549265    30.973532    30.973532    30.973532 
 2453000    308.69079   -9294.6077     1839.377   -11133.985    595.63751    866.17207    955.19625   -34.455784    30.973532    30.973532    30.973532 
 2454000    307.22491   -9294.6636    1830.6424   -11125.306   -44.220876   -161.07379    118.33377   -89.922611    30.973532    30.973532    30.973532 
 2455000    307.81164    -9294.592    1834.1385   -11128.731    358.61163     716.6984   -65.335598    424.47208    30.973532    30.973532    30.973532 
 2456000    308.43036   -9294.6133    1837.8253   -11132.439    379.77777    54.494565    526.05837    558.78037    30.973532    30.973532    30.973532 
 2457000    307.30577   -9294.7524    1831.1242   -11125.877    255.50157   -346.17917    829.16111    283.52278    30.973532    30.973532    30.973532 
 2458000    309.27614   -9294.6161    1842.8649   -11137.481    123.37714   -741.62155   -55.558924    1167.3119    30.973532    30.973532    30.973532 
 2459000    303.75285   -9294.5865    1809.9536    -11104.54    572.04303    774.49089    633.21216    308.42606    30.973532    30.973532    30.973532 
 2460000    303.28679   -9294.5924    1807.1766   -11101.769    117.10055  -0.23903699    72.684398     278.8563    30.973532    30.973532    30.973532 
 2461000    305.64244   -9294.6725     1821.213   -11115.886    51.629144    15.510925    95.209105    44.167403    30.973532    30.973532    30.973532 
 2462000    307.39802   -9294.6842    1831.6739   -11126.358   -120.04892    85.884675    545.98803   -992.01945    30.973532    30.973532    30.973532 
 2463000    300.17022   -9294.5816    1788.6061   -11083.188    162.19021    228.31202   -245.49892    503.75754    30.973532    30.973532    30.973532 
 2464000    303.63048   -9294.6626    1809.2245   -11103.887    940.62655    589.47195    1673.9464    558.46132    30.973532    30.973532    30.973532 
 2465000    307.49279   -9294.6174    1832.2386   -11126.856    426.37477    403.63534    771.00055    104.48843    30.973532    30.973532    30.973532 
 2466000    295.27536    -9294.609    1759.4394   -11054.048    481.27648   -393.40724    1162.6101    674.62659    30.973532    30.973532    30.973532 
 2467000     303.0551   -9294.7584     1805.796   -11100.554    -771.6189   -240.21477   -374.43426   -1700.2077    30.973532    30.973532    30.973532 
 2468000     295.2686   -9294.6584    1759.3991   -11054.057    449.40469    620.45866    474.06007    253.69534    30.973532    30.973532    30.973532 
 2469000    311.23283     -9294.75    1854.5242   -11149.274    435.45301    931.47578   -30.758555    405.64181    30.973532    30.973532    30.973532 
 2470000    308.90662   -9294.7465    1840.6631    -11135.41    506.33882    1007.2294    686.52184    -174.7348    30.973532    30.973532    30.973532 
 2471000    311.82723   -9294.6